3
Step    0: Energy =             0 Cell = 20.0000 0.0000 0.0000 0.0000 20.0000 0.0000 0.0000 0.0000 20.0000
O    5.000   5.000   5.000
H    6.000   5.000   5.000
H    5.000   6.000   5.000
3
Step    1: Energy =  -3.132055108 Cell = 20.0000 0.0000 0.0000 0.0000 20.0000 0.0000 0.0000 0.0000 20.0000
O    5.041   5.041   5.000
H    5.977   4.982   5.000
H    4.982   5.977   5.000
3
Step    2: Energy =  -3.719199416 Cell = 20.0000 0.0000 0.0000 0.0000 20.0000 0.0000 0.0000 0.0000 20.0000
O    5.015   5.015   5.000
H    5.992   4.994   5.000
H    4.994   5.992   5.000
3
Step    3: Energy =  -1.560678683 Cell = 20.0000 0.0000 0.0000 0.0000 20.0000 0.0000 0.0000 0.0000 20.0000
O    5.008   5.008   5.000
H    5.995   4.997   5.000
H    4.997   5.995   5.000
3
Step    4: Energy =  -1.044019419 Cell = 20.0000 0.0000 0.0000 0.0000 20.0000 0.0000 0.0000 0.0000 20.0000
O    5.011   5.011   5.000
H    5.994   4.995   5.000
H    4.995   5.994   5.000
3
Step    5: Energy =  -1.044626033 Cell = 20.0000 0.0000 0.0000 0.0000 20.0000 0.0000 0.0000 0.0000 20.0000
O    5.013   5.013   5.000
H    5.993   4.994   5.000
H    4.994   5.993   5.000
3
Step    6: Energy =  -1.046778188 Cell = 20.0000 0.0000 0.0000 0.0000 20.0000 0.0000 0.0000 0.0000 20.0000
O    5.014   5.014   5.000
H    5.992   4.994   5.000
H    4.994   5.992   5.000
3
Step    7: Energy =  -1.047039001 Cell = 20.0000 0.0000 0.0000 0.0000 20.0000 0.0000 0.0000 0.0000 20.0000
O    5.014   5.014   5.000
H    5.992   4.994   5.000
H    4.994   5.992   5.000
3
Step    8: Energy =  -1.046860753 Cell = 20.0000 0.0000 0.0000 0.0000 20.0000 0.0000 0.0000 0.0000 20.0000
O    5.014   5.014   5.000
H    5.992   4.994   5.000
H    4.994   5.992   5.000
3
Step    9: Energy =  -1.047124016 Cell = 20.0000 0.0000 0.0000 0.0000 20.0000 0.0000 0.0000 0.0000 20.0000
O    5.015   5.015   5.000
H    5.992   4.994   5.000
H    4.994   5.992   5.000
3
Step   10: Energy =   -1.04725542 Cell = 20.0000 0.0000 0.0000 0.0000 20.0000 0.0000 0.0000 0.0000 20.0000
O    5.015   5.015   5.000
H    5.992   4.994   5.000
H    4.994   5.992   5.000
3
Step   11: Energy =  -1.047321065 Cell = 20.0000 0.0000 0.0000 0.0000 20.0000 0.0000 0.0000 0.0000 20.0000
O    5.015   5.015   5.000
H    5.992   4.994   5.000
H    4.994   5.992   5.000
3
Step   12: Energy =  -1.047353874 Cell = 20.0000 0.0000 0.0000 0.0000 20.0000 0.0000 0.0000 0.0000 20.0000
O    5.015   5.015   5.000
H    5.992   4.994   5.000
H    4.994   5.992   5.000
3
Step   13: Energy =  -1.047370274 Cell = 20.0000 0.0000 0.0000 0.0000 20.0000 0.0000 0.0000 0.0000 20.0000
O    5.015   5.015   5.000
H    5.992   4.994   5.000
H    4.994   5.992   5.000
3
Step   14: Energy =  -1.047378474 Cell = 20.0000 0.0000 0.0000 0.0000 20.0000 0.0000 0.0000 0.0000 20.0000
O    5.015   5.015   5.000
H    5.992   4.994   5.000
H    4.994   5.992   5.000
3
Step   15: Energy =  -1.048302272 Cell = 20.0000 0.0000 0.0000 0.0000 20.0000 0.0000 0.0000 0.0000 20.0000
O    5.032   5.032   5.000
H    5.995   4.973   5.000
H    4.973   5.995   5.000
3
Step   16: Energy =  -1.048813808 Cell = 20.0000 0.0000 0.0000 0.0000 20.0000 0.0000 0.0000 0.0000 20.0000
O    5.042   5.042   5.000
H    5.996   4.962   5.000
H    4.962   5.996   5.000
3
Step   17: Energy =  -1.050042219 Cell = 20.0000 0.0000 0.0000 0.0000 20.0000 0.0000 0.0000 0.0000 20.0000
O    5.048   5.048   5.000
H    6.006   4.946   5.000
H    4.946   6.006   5.000
3
Step   18: Energy =  -1.050353075 Cell = 20.0000 0.0000 0.0000 0.0000 20.0000 0.0000 0.0000 0.0000 20.0000
O    5.053   5.053   5.000
H    6.015   4.932   5.000
H    4.932   6.015   5.000
3
Step   19: Energy =  -1.049002261 Cell = 20.0000 0.0000 0.0000 0.0000 20.0000 0.0000 0.0000 0.0000 20.0000
O    5.052   5.052   5.000
H    6.014   4.934   5.000
H    4.934   6.014   5.000
3
Step   20: Energy =  -1.048845883 Cell = 20.0000 0.0000 0.0000 0.0000 20.0000 0.0000 0.0000 0.0000 20.0000
O    5.052   5.052   5.000
H    6.014   4.934   5.000
H    4.934   6.014   5.000
