3
Step    0: Energy =             0 Cell = 20.0000 0.0000 0.0000 0.0000 20.0000 0.0000 0.0000 0.0000 20.0000
O    5.000   5.000   5.000
H    5.788   5.616   5.000
H    4.212   5.616   5.000
3
Step    1: Energy =  -3.808718637 Cell = 20.0000 0.0000 0.0000 0.0000 20.0000 0.0000 0.0000 0.0000 20.0000
O    5.000   5.012   5.000
H    5.786   5.610   5.000
H    4.214   5.610   5.000
3
Step    2: Energy =  -1.590727075 Cell = 20.0000 0.0000 0.0000 0.0000 20.0000 0.0000 0.0000 0.0000 20.0000
O    5.000   5.003   5.000
H    5.788   5.615   5.000
H    4.212   5.615   5.000
3
Step    3: Energy =  -1.047186751 Cell = 20.0000 0.0000 0.0000 0.0000 20.0000 0.0000 0.0000 0.0000 20.0000
O    5.000   5.007   5.000
H    5.787   5.612   5.000
H    4.213   5.612   5.000
3
Step    4: Energy =  -1.050537491 Cell = 20.0000 0.0000 0.0000 0.0000 20.0000 0.0000 0.0000 0.0000 20.0000
O    5.000   5.010   5.000
H    5.787   5.611   5.000
H    4.213   5.611   5.000
3
Step    5: Energy =  -1.048327048 Cell = 20.0000 0.0000 0.0000 0.0000 20.0000 0.0000 0.0000 0.0000 20.0000
O    5.000   5.011   5.000
H    5.786   5.611   5.000
H    4.214   5.611   5.000
3
Step    6: Energy =  -1.049376385 Cell = 20.0000 0.0000 0.0000 0.0000 20.0000 0.0000 0.0000 0.0000 20.0000
O    5.000   5.011   5.000
H    5.786   5.610   5.000
H    4.214   5.610   5.000
3
Step    7: Energy =  -1.049898677 Cell = 20.0000 0.0000 0.0000 0.0000 20.0000 0.0000 0.0000 0.0000 20.0000
O    5.000   5.012   5.000
H    5.786   5.610   5.000
H    4.214   5.610   5.000
3
Step    8: Energy =  -1.050159228 Cell = 20.0000 0.0000 0.0000 0.0000 20.0000 0.0000 0.0000 0.0000 20.0000
O    5.000   5.012   5.000
H    5.786   5.610   5.000
H    4.214   5.610   5.000
3
Step    9: Energy =  -1.050289355 Cell = 20.0000 0.0000 0.0000 0.0000 20.0000 0.0000 0.0000 0.0000 20.0000
O    5.000   5.012   5.000
H    5.786   5.610   5.000
H    4.214   5.610   5.000
3
Step   10: Energy =  -1.050354381 Cell = 20.0000 0.0000 0.0000 0.0000 20.0000 0.0000 0.0000 0.0000 20.0000
O    5.000   5.012   5.000
H    5.786   5.610   5.000
H    4.214   5.610   5.000
3
Step   11: Energy =  -1.050386885 Cell = 20.0000 0.0000 0.0000 0.0000 20.0000 0.0000 0.0000 0.0000 20.0000
O    5.000   5.012   5.000
H    5.786   5.610   5.000
H    4.214   5.610   5.000
3
Step   12: Energy =  -1.050403135 Cell = 20.0000 0.0000 0.0000 0.0000 20.0000 0.0000 0.0000 0.0000 20.0000
O    5.000   5.012   5.000
H    5.786   5.610   5.000
H    4.214   5.610   5.000
3
Step   13: Energy =  -1.050411259 Cell = 20.0000 0.0000 0.0000 0.0000 20.0000 0.0000 0.0000 0.0000 20.0000
O    5.000   5.012   5.000
H    5.786   5.610   5.000
H    4.214   5.610   5.000
3
Step   14: Energy =  -1.050415321 Cell = 20.0000 0.0000 0.0000 0.0000 20.0000 0.0000 0.0000 0.0000 20.0000
O    5.000   5.012   5.000
H    5.786   5.610   5.000
H    4.214   5.610   5.000
3
Step   15: Energy =  -1.050417352 Cell = 20.0000 0.0000 0.0000 0.0000 20.0000 0.0000 0.0000 0.0000 20.0000
O    5.000   5.012   5.000
H    5.786   5.610   5.000
H    4.214   5.610   5.000
3
Step   16: Energy =  -1.050152621 Cell = 20.0000 0.0000 0.0000 0.0000 20.0000 0.0000 0.0000 0.0000 20.0000
O    5.000   5.016   5.000
H    5.774   5.608   5.000
H    4.226   5.608   5.000
3
Step   17: Energy =  -1.050307595 Cell = 20.0000 0.0000 0.0000 0.0000 20.0000 0.0000 0.0000 0.0000 20.0000
O    5.000   5.018   5.000
H    5.769   5.607   5.000
H    4.231   5.607   5.000
3
Step   18: Energy =  -1.050345109 Cell = 20.0000 0.0000 0.0000 0.0000 20.0000 0.0000 0.0000 0.0000 20.0000
O    5.000   5.015   5.000
H    5.767   5.608   5.000
H    4.233   5.608   5.000
3
Step   19: Energy =  -1.048278417 Cell = 20.0000 0.0000 0.0000 0.0000 20.0000 0.0000 0.0000 0.0000 20.0000
O    5.000   5.013   5.000
H    5.764   5.610   5.000
H    4.236   5.610   5.000
3
Step   20: Energy =  -1.048382529 Cell = 20.0000 0.0000 0.0000 0.0000 20.0000 0.0000 0.0000 0.0000 20.0000
O    5.000   5.013   5.000
H    5.764   5.610   5.000
H    4.236   5.610   5.000
