1
Step    0: Energy =             0 Cell = 20.0000 0.0000 0.0000 0.0000 20.0000 0.0000 0.0000 0.0000 20.0000
O    5.000   5.000   5.000
