13
Step    0: Energy =             0 Cell = 20.0000 0.0000 0.0000 0.0000 20.0000 0.0000 0.0000 0.0000 20.0000
C    2.084   5.000   5.047
C    2.084   5.000   6.451
C    3.300   5.000   7.153
C    4.516   5.000   6.451
C    4.516   5.000   5.047
C    3.300   5.000   4.345
H    1.136   5.000   4.498
H    1.134   5.000   7.000
O    3.300   5.000   8.251
H    3.300   5.000   9.251
H    5.466   5.000   7.000
H    5.466   5.000   4.498
H    3.300   5.000   3.248
13
Step    1: Energy =  -5.590433341 Cell = 20.0000 0.0000 0.0000 0.0000 20.0000 0.0000 0.0000 0.0000 20.0000
C    2.085   5.000   5.046
C    2.082   5.000   6.449
C    3.300   5.000   7.111
C    4.518   5.000   6.449
C    4.515   5.000   5.046
C    3.300   5.000   4.344
H    1.134   5.000   4.497
H    1.131   5.000   7.002
O    3.300   5.000   8.304
H    3.300   5.000   9.247
H    5.469   5.000   7.002
H    5.467   5.000   4.497
H    3.300   5.000   3.247
13
Step    2: Energy =  -5.668369651 Cell = 20.0000 0.0000 0.0000 0.0000 20.0000 0.0000 0.0000 0.0000 20.0000
C    2.086   5.000   5.045
C    2.081   5.000   6.447
C    3.300   5.000   7.083
C    4.519   5.000   6.447
C    4.515   5.000   5.045
C    3.300   5.000   4.344
H    1.133   5.000   4.497
H    1.130   5.000   7.003
O    3.300   5.000   8.340
H    3.300   5.000   9.244
H    5.470   5.000   7.003
H    5.468   5.000   4.497
H    3.300   5.000   3.247
13
Step    3: Energy =  -5.617348892 Cell = 20.0000 0.0000 0.0000 0.0000 20.0000 0.0000 0.0000 0.0000 20.0000
C    2.086   5.000   5.044
C    2.080   5.000   6.446
C    3.300   5.000   7.073
C    4.520   5.000   6.446
C    4.514   5.000   5.044
C    3.300   5.000   4.344
H    1.133   5.000   4.497
H    1.129   5.000   7.003
O    3.300   5.000   8.353
H    3.300   5.000   9.243
H    5.471   5.000   7.003
H    5.469   5.000   4.497
H    3.300   5.000   3.246
13
Step    4: Energy =  -5.615438011 Cell = 20.0000 0.0000 0.0000 0.0000 20.0000 0.0000 0.0000 0.0000 20.0000
C    2.082   5.000   5.042
C    2.048   5.000   6.410
C    3.300   5.000   7.020
C    4.552   5.000   6.410
C    4.519   5.000   5.042
C    3.300   5.000   4.338
H    1.133   5.000   4.496
H    1.133   5.000   7.004
O    3.300   5.000   8.381
H    3.300   5.000   9.351
H    5.467   5.000   7.004
H    5.468   5.000   4.496
H    3.300   5.000   3.247
13
Step    5: Energy =  -5.631178845 Cell = 20.0000 0.0000 0.0000 0.0000 20.0000 0.0000 0.0000 0.0000 20.0000
C    2.074   5.000   5.019
C    2.046   5.000   6.404
C    3.300   5.000   7.052
C    4.554   5.000   6.404
C    4.526   5.000   5.018
C    3.300   5.000   4.340
H    1.133   5.000   4.492
H    1.132   5.000   7.003
O    3.300   5.000   8.409
H    3.300   5.000   9.358
H    5.468   5.000   7.003
H    5.468   5.000   4.493
H    3.300   5.000   3.245
13
Step    6: Energy =  -5.637471279 Cell = 20.0000 0.0000 0.0000 0.0000 20.0000 0.0000 0.0000 0.0000 20.0000
C    2.078   5.000   5.011
C    2.057   5.000   6.404
C    3.300   5.000   7.074
C    4.543   5.000   6.404
C    4.523   5.000   5.011
C    3.300   5.000   4.326
H    1.122   5.000   4.479
H    1.129   5.000   7.001
O    3.300   5.000   8.433
H    3.300   5.000   9.374
H    5.471   5.000   7.001
H    5.479   5.000   4.479
H    3.300   5.000   3.243
13
Step    7: Energy =  -5.630567943 Cell = 20.0000 0.0000 0.0000 0.0000 20.0000 0.0000 0.0000 0.0000 20.0000
C    2.079   5.000   5.009
C    2.061   5.000   6.403
C    3.300   5.000   7.082
C    4.539   5.000   6.404
C    4.522   5.000   5.009
C    3.300   5.000   4.321
H    1.118   5.000   4.474
H    1.128   5.000   7.000
O    3.300   5.000   8.442
H    3.300   5.000   9.381
H    5.472   5.000   7.000
H    5.483   5.000   4.474
H    3.300   5.000   3.242
13
Step    8: Energy =  -5.636917478 Cell = 20.0000 0.0000 0.0000 0.0000 20.0000 0.0000 0.0000 0.0000 20.0000
C    2.076   5.000   5.002
C    2.064   5.000   6.410
C    3.300   5.000   7.089
C    4.536   5.000   6.410
C    4.525   5.000   5.003
C    3.300   5.000   4.316
H    1.115   5.000   4.465
H    1.131   5.000   6.992
O    3.300   5.000   8.460
H    3.300   5.000   9.407
H    5.469   5.000   6.992
H    5.486   5.000   4.465
H    3.300   5.000   3.228
13
Step    9: Energy =  -5.637769711 Cell = 20.0000 0.0000 0.0000 0.0000 20.0000 0.0000 0.0000 0.0000 20.0000
C    2.073   5.000   5.007
C    2.064   5.000   6.408
C    3.300   5.000   7.100
C    4.536   5.000   6.408
C    4.528   5.000   5.007
C    3.300   5.000   4.309
H    1.117   5.000   4.457
H    1.133   5.000   6.984
O    3.300   5.000   8.477
H    3.300   5.000   9.429
H    5.467   5.000   6.984
H    5.483   5.000   4.458
H    3.300   5.000   3.213
13
Step   10: Energy =  -5.632212688 Cell = 20.0000 0.0000 0.0000 0.0000 20.0000 0.0000 0.0000 0.0000 20.0000
C    2.077   5.000   5.007
C    2.066   5.000   6.409
C    3.300   5.000   7.101
C    4.534   5.000   6.409
C    4.523   5.000   5.007
C    3.300   5.000   4.308
H    1.121   5.000   4.457
H    1.131   5.000   6.981
O    3.300   5.000   8.478
H    3.300   5.000   9.433
H    5.469   5.000   6.981
H    5.479   5.000   4.458
H    3.300   5.000   3.210
13
Step   11: Energy =  -5.636124496 Cell = 20.0000 0.0000 0.0000 0.0000 20.0000 0.0000 0.0000 0.0000 20.0000
C    2.084   5.000   5.007
C    2.069   5.000   6.412
C    3.300   5.000   7.102
C    4.531   5.000   6.412
C    4.517   5.000   5.007
C    3.300   5.000   4.306
H    1.128   5.000   4.458
H    1.128   5.000   6.976
O    3.300   5.000   8.481
H    3.300   5.000   9.439
H    5.472   5.000   6.976
H    5.473   5.000   4.458
H    3.300   5.000   3.206
13
Step   12: Energy =  -5.640042035 Cell = 20.0000 0.0000 0.0000 0.0000 20.0000 0.0000 0.0000 0.0000 20.0000
C    2.086   5.000   5.008
C    2.069   5.000   6.413
C    3.300   5.000   7.106
C    4.531   5.000   6.413
C    4.515   5.000   5.009
C    3.300   5.000   4.302
H    1.134   5.000   4.459
H    1.127   5.000   6.971
O    3.300   5.000   8.483
H    3.300   5.000   9.439
H    5.474   5.000   6.972
H    5.467   5.000   4.459
H    3.300   5.000   3.206
13
Step   13: Energy =  -5.643151488 Cell = 20.0000 0.0000 0.0000 0.0000 20.0000 0.0000 0.0000 0.0000 20.0000
C    2.086   5.000   5.009
C    2.069   5.000   6.413
C    3.300   5.000   7.107
C    4.531   5.000   6.413
C    4.514   5.000   5.009
C    3.300   5.000   4.300
H    1.136   5.000   4.459
H    1.126   5.000   6.970
O    3.300   5.000   8.484
H    3.300   5.000   9.439
H    5.474   5.000   6.970
H    5.464   5.000   4.460
H    3.300   5.000   3.206
13
Step   14: Energy =  -5.636387078 Cell = 20.0000 0.0000 0.0000 0.0000 20.0000 0.0000 0.0000 0.0000 20.0000
C    2.088   5.000   5.010
C    2.070   5.000   6.411
C    3.300   5.000   7.111
C    4.531   5.000   6.412
C    4.513   5.000   5.010
C    3.300   5.000   4.303
H    1.139   5.000   4.460
H    1.124   5.000   6.967
O    3.300   5.000   8.486
H    3.300   5.000   9.439
H    5.476   5.000   6.967
H    5.462   5.000   4.460
H    3.300   5.000   3.205
13
Step   15: Energy =  -5.635033567 Cell = 20.0000 0.0000 0.0000 0.0000 20.0000 0.0000 0.0000 0.0000 20.0000
C    2.088   5.000   5.010
C    2.070   5.000   6.412
C    3.300   5.000   7.111
C    4.530   5.000   6.412
C    4.513   5.000   5.010
C    3.300   5.000   4.303
H    1.139   5.000   4.460
H    1.123   5.000   6.965
O    3.300   5.000   8.487
H    3.300   5.000   9.440
H    5.477   5.000   6.965
H    5.462   5.000   4.460
H    3.300   5.000   3.206
13
Step   16: Energy =  -5.639302071 Cell = 20.0000 0.0000 0.0000 0.0000 20.0000 0.0000 0.0000 0.0000 20.0000
C    2.088   5.000   5.011
C    2.071   5.000   6.413
C    3.300   5.000   7.111
C    4.529   5.000   6.413
C    4.513   5.000   5.011
C    3.300   5.000   4.306
H    1.140   5.000   4.460
H    1.119   5.000   6.957
O    3.300   5.000   8.489
H    3.300   5.000   9.442
H    5.481   5.000   6.957
H    5.461   5.000   4.460
H    3.300   5.000   3.209
13
Step   17: Energy =  -5.641092058 Cell = 20.0000 0.0000 0.0000 0.0000 20.0000 0.0000 0.0000 0.0000 20.0000
C    2.088   5.000   5.012
C    2.070   5.000   6.413
C    3.300   5.000   7.112
C    4.531   5.000   6.413
C    4.512   5.000   5.012
C    3.300   5.000   4.307
H    1.139   5.000   4.460
H    1.118   5.000   6.954
O    3.300   5.000   8.489
H    3.300   5.000   9.442
H    5.483   5.000   6.954
H    5.462   5.000   4.460
H    3.300   5.000   3.211
13
Step   18: Energy =  -5.639221864 Cell = 20.0000 0.0000 0.0000 0.0000 20.0000 0.0000 0.0000 0.0000 20.0000
C    2.087   5.000   5.012
C    2.069   5.000   6.413
C    3.300   5.000   7.113
C    4.531   5.000   6.413
C    4.513   5.000   5.012
C    3.300   5.000   4.307
H    1.138   5.000   4.460
H    1.117   5.000   6.954
O    3.300   5.000   8.489
H    3.300   5.000   9.442
H    5.484   5.000   6.954
H    5.463   5.000   4.461
H    3.300   5.000   3.212
13
Step   19: Energy =  -5.638766352 Cell = 20.0000 0.0000 0.0000 0.0000 20.0000 0.0000 0.0000 0.0000 20.0000
C    2.087   5.000   5.012
C    2.069   5.000   6.412
C    3.300   5.000   7.113
C    4.531   5.000   6.412
C    4.513   5.000   5.012
C    3.300   5.000   4.307
H    1.138   5.000   4.460
H    1.116   5.000   6.954
O    3.300   5.000   8.489
H    3.300   5.000   9.442
H    5.484   5.000   6.954
H    5.463   5.000   4.461
H    3.300   5.000   3.212
13
Step   20: Energy =  -5.637805196 Cell = 20.0000 0.0000 0.0000 0.0000 20.0000 0.0000 0.0000 0.0000 20.0000
C    2.087   5.000   5.012
C    2.069   5.000   6.413
C    3.300   5.000   7.113
C    4.531   5.000   6.413
C    4.513   5.000   5.012
C    3.300   5.000   4.307
H    1.137   5.000   4.461
H    1.115   5.000   6.954
O    3.301   5.000   8.489
H    3.300   5.000   9.442
H    5.485   5.000   6.954
H    5.463   5.000   4.461
H    3.300   5.000   3.211
13
Step   21: Energy =  -5.637183454 Cell = 20.0000 0.0000 0.0000 0.0000 20.0000 0.0000 0.0000 0.0000 20.0000
C    2.087   5.000   5.012
C    2.069   5.000   6.413
C    3.300   5.000   7.113
C    4.532   5.000   6.413
C    4.514   5.000   5.012
C    3.300   5.000   4.307
H    1.137   5.000   4.461
H    1.115   5.000   6.954
O    3.301   5.000   8.489
H    3.299   5.000   9.442
H    5.485   5.000   6.954
H    5.463   5.000   4.461
H    3.300   5.000   3.211
13
Step   22: Energy =  -5.637069085 Cell = 20.0000 0.0000 0.0000 0.0000 20.0000 0.0000 0.0000 0.0000 20.0000
C    2.087   5.000   5.012
C    2.068   5.000   6.413
C    3.300   5.000   7.113
C    4.532   5.000   6.413
C    4.514   5.000   5.012
C    3.300   5.000   4.307
H    1.137   5.000   4.461
H    1.114   5.000   6.953
O    3.301   5.000   8.488
H    3.299   5.000   9.442
H    5.486   5.000   6.954
H    5.463   5.000   4.461
H    3.300   5.000   3.210
13
Step   23: Energy =  -5.637571664 Cell = 20.0000 0.0000 0.0000 0.0000 20.0000 0.0000 0.0000 0.0000 20.0000
C    2.087   5.000   5.012
C    2.068   5.000   6.413
C    3.300   5.000   7.113
C    4.532   5.000   6.413
C    4.513   5.000   5.012
C    3.300   5.000   4.307
H    1.137   5.000   4.461
H    1.114   5.000   6.953
O    3.301   5.000   8.489
H    3.299   5.000   9.442
H    5.486   5.000   6.953
H    5.463   5.000   4.462
H    3.300   5.000   3.210
13
Step   24: Energy =   -5.64011087 Cell = 20.0000 0.0000 0.0000 0.0000 20.0000 0.0000 0.0000 0.0000 20.0000
C    2.087   5.000   5.012
C    2.069   5.000   6.413
C    3.300   5.000   7.112
C    4.532   5.000   6.413
C    4.513   5.000   5.012
C    3.301   5.000   4.306
H    1.137   5.000   4.462
H    1.114   5.000   6.953
O    3.304   5.000   8.489
H    3.297   5.000   9.442
H    5.486   5.000   6.953
H    5.464   5.000   4.463
H    3.300   5.000   3.210
13
Step   25: Energy =  -5.642206943 Cell = 20.0000 0.0000 0.0000 0.0000 20.0000 0.0000 0.0000 0.0000 20.0000
C    2.087   5.000   5.012
C    2.069   5.000   6.413
C    3.299   5.000   7.110
C    4.532   5.000   6.413
C    4.512   5.000   5.012
C    3.301   5.000   4.304
H    1.136   5.000   4.465
H    1.112   5.000   6.953
O    3.310   5.000   8.490
H    3.293   5.000   9.443
H    5.486   5.000   6.952
H    5.465   5.000   4.465
H    3.300   5.000   3.208
13
Step   26: Energy =  -5.639915691 Cell = 20.0000 0.0000 0.0000 0.0000 20.0000 0.0000 0.0000 0.0000 20.0000
C    2.088   5.000   5.013
C    2.068   5.000   6.414
C    3.298   5.000   7.107
C    4.533   5.000   6.412
C    4.511   5.000   5.013
C    3.301   5.000   4.300
H    1.133   5.000   4.470
H    1.109   5.000   6.951
O    3.323   5.000   8.491
H    3.284   5.000   9.443
H    5.486   5.000   6.951
H    5.467   5.000   4.470
H    3.300   5.000   3.205
13
Step   27: Energy =  -5.639637627 Cell = 20.0000 0.0000 0.0000 0.0000 20.0000 0.0000 0.0000 0.0000 20.0000
C    2.089   5.000   5.014
C    2.068   5.000   6.415
C    3.295   5.000   7.099
C    4.535   5.000   6.411
C    4.508   5.000   5.014
C    3.303   5.000   4.292
H    1.129   5.000   4.481
H    1.103   5.000   6.949
O    3.348   5.000   8.494
H    3.266   5.000   9.445
H    5.488   5.000   6.947
H    5.471   5.000   4.481
H    3.299   5.000   3.198
13
Step   28: Energy =    -5.6396466 Cell = 20.0000 0.0000 0.0000 0.0000 20.0000 0.0000 0.0000 0.0000 20.0000
C    2.091   5.000   5.017
C    2.068   5.000   6.416
C    3.290   5.000   7.085
C    4.538   5.000   6.409
C    4.503   5.000   5.016
C    3.305   5.000   4.277
H    1.120   5.000   4.502
H    1.091   5.000   6.944
O    3.399   5.000   8.500
H    3.229   5.000   9.448
H    5.490   5.000   6.940
H    5.478   5.000   4.502
H    3.299   5.000   3.185
13
Step   29: Energy =  -5.709773078 Cell = 20.0000 0.0000 0.0000 0.0000 20.0000 0.0000 0.0000 0.0000 20.0000
C    2.096   5.000   5.022
C    2.066   5.000   6.419
C    3.280   5.000   7.057
C    4.545   5.000   6.405
C    4.493   5.000   5.019
C    3.310   5.000   4.246
H    1.102   5.000   4.543
H    1.067   5.000   6.934
O    3.501   5.000   8.512
H    3.156   5.000   9.454
H    5.494   5.000   6.925
H    5.494   5.000   4.545
H    3.297   5.000   3.159
13
Step   30: Energy =  -5.535287404 Cell = 20.0000 0.0000 0.0000 0.0000 20.0000 0.0000 0.0000 0.0000 20.0000
C    2.092   5.000   5.018
C    2.067   5.000   6.416
C    3.288   5.000   7.080
C    4.540   5.000   6.408
C    4.501   5.000   5.016
C    3.306   5.000   4.270
H    1.116   5.000   4.510
H    1.086   5.000   6.942
O    3.420   5.000   8.503
H    3.214   5.000   9.449
H    5.491   5.000   6.937
H    5.482   5.000   4.511
H    3.298   5.000   3.180
13
Step   31: Energy =  -5.629674039 Cell = 20.0000 0.0000 0.0000 0.0000 20.0000 0.0000 0.0000 0.0000 20.0000
C    2.093   5.000   5.019
C    2.067   5.000   6.417
C    3.285   5.000   7.072
C    4.542   5.000   6.407
C    4.498   5.000   5.017
C    3.307   5.000   4.262
H    1.111   5.000   4.522
H    1.080   5.000   6.939
O    3.448   5.000   8.506
H    3.194   5.000   9.451
H    5.492   5.000   6.933
H    5.486   5.000   4.523
H    3.298   5.000   3.172
13
Step   32: Energy =  -5.639637431 Cell = 20.0000 0.0000 0.0000 0.0000 20.0000 0.0000 0.0000 0.0000 20.0000
C    2.093   5.000   5.019
C    2.067   5.000   6.417
C    3.287   5.000   7.075
C    4.541   5.000   6.408
C    4.499   5.000   5.017
C    3.307   5.000   4.265
H    1.113   5.000   4.517
H    1.082   5.000   6.940
O    3.436   5.000   8.505
H    3.202   5.000   9.450
H    5.492   5.000   6.934
H    5.484   5.000   4.518
H    3.298   5.000   3.175
13
Step   33: Energy =  -5.591051131 Cell = 20.0000 0.0000 0.0000 0.0000 20.0000 0.0000 0.0000 0.0000 20.0000
C    2.088   5.000   5.020
C    2.060   5.000   6.422
C    3.285   5.000   7.085
C    4.538   5.000   6.404
C    4.497   5.000   5.017
C    3.310   5.000   4.252
H    1.096   5.000   4.547
H    1.062   5.000   6.926
O    3.528   5.000   8.514
H    3.136   5.000   9.427
H    5.503   5.000   6.920
H    5.503   5.000   4.546
H    3.297   5.000   3.160
13
Step   34: Energy =  -5.577954835 Cell = 20.0000 0.0000 0.0000 0.0000 20.0000 0.0000 0.0000 0.0000 20.0000
C    2.082   5.000   5.022
C    2.050   5.000   6.431
C    3.282   5.000   7.099
C    4.533   5.000   6.397
C    4.493   5.000   5.016
C    3.316   5.000   4.232
H    1.069   5.000   4.594
H    1.030   5.000   6.904
O    3.667   5.000   8.527
H    3.034   5.000   9.391
H    5.519   5.000   6.899
H    5.532   5.000   4.590
H    3.295   5.000   3.137
13
Step   35: Energy =  -5.759548753 Cell = 20.0000 0.0000 0.0000 0.0000 20.0000 0.0000 0.0000 0.0000 20.0000
C    2.087   5.000   5.020
C    2.058   5.000   6.424
C    3.284   5.000   7.088
C    4.537   5.000   6.402
C    4.496   5.000   5.016
C    3.312   5.000   4.248
H    1.090   5.000   4.558
H    1.054   5.000   6.921
O    3.560   5.000   8.517
H    3.112   5.000   9.419
H    5.507   5.000   6.915
H    5.510   5.000   4.556
H    3.296   5.000   3.155
13
Step   36: Energy =  -5.679242122 Cell = 20.0000 0.0000 0.0000 0.0000 20.0000 0.0000 0.0000 0.0000 20.0000
C    2.086   5.000   5.021
C    2.057   5.000   6.425
C    3.284   5.000   7.090
C    4.536   5.000   6.402
C    4.495   5.000   5.016
C    3.312   5.000   4.245
H    1.087   5.000   4.563
H    1.051   5.000   6.919
O    3.576   5.000   8.518
H    3.101   5.000   9.415
H    5.508   5.000   6.913
H    5.513   5.000   4.561
H    3.296   5.000   3.152
13
Step   37: Energy =  -5.678787223 Cell = 20.0000 0.0000 0.0000 0.0000 20.0000 0.0000 0.0000 0.0000 20.0000
C    2.086   5.000   5.020
C    2.057   5.000   6.425
C    3.284   5.000   7.089
C    4.536   5.000   6.402
C    4.495   5.000   5.016
C    3.312   5.000   4.246
H    1.088   5.000   4.562
H    1.051   5.000   6.919
O    3.572   5.000   8.518
H    3.104   5.000   9.416
H    5.508   5.000   6.913
H    5.512   5.000   4.560
H    3.296   5.000   3.153
13
Step   38: Energy =  -5.642124414 Cell = 20.0000 0.0000 0.0000 0.0000 20.0000 0.0000 0.0000 0.0000 20.0000
C    2.085   5.000   5.018
C    2.059   5.000   6.430
C    3.295   5.000   7.134
C    4.518   5.000   6.398
C    4.506   5.000   5.009
C    3.303   5.000   4.267
H    1.088   5.000   4.555
H    1.067   5.000   6.924
O    3.602   5.000   8.511
H    3.078   5.000   9.357
H    5.494   5.000   6.921
H    5.511   5.000   4.551
H    3.296   5.000   3.166
13
Step   39: Energy =  -5.616949278 Cell = 20.0000 0.0000 0.0000 0.0000 20.0000 0.0000 0.0000 0.0000 20.0000
C    2.083   5.000   5.016
C    2.061   5.000   6.435
C    3.306   5.000   7.179
C    4.500   5.000   6.394
C    4.517   5.000   5.001
C    3.294   5.000   4.287
H    1.089   5.000   4.548
H    1.082   5.000   6.928
O    3.632   5.000   8.504
H    3.052   5.000   9.298
H    5.479   5.000   6.928
H    5.510   5.000   4.542
H    3.297   5.000   3.180
13
Step   40: Energy =  -5.681331057 Cell = 20.0000 0.0000 0.0000 0.0000 20.0000 0.0000 0.0000 0.0000 20.0000
C    2.099   5.000   5.024
C    2.078   5.000   6.441
C    3.314   5.000   7.151
C    4.490   5.000   6.386
C    4.510   5.000   5.003
C    3.284   5.000   4.302
H    1.110   5.000   4.549
H    1.117   5.000   6.950
O    3.664   5.000   8.495
H    3.024   5.000   9.248
H    5.429   5.000   6.945
H    5.488   5.000   4.542
H    3.295   5.000   3.203
13
Step   41: Energy =  -5.695152326 Cell = 20.0000 0.0000 0.0000 0.0000 20.0000 0.0000 0.0000 0.0000 20.0000
C    2.099   5.000   5.039
C    2.087   5.000   6.460
C    3.327   5.000   7.141
C    4.493   5.000   6.381
C    4.500   5.000   5.010
C    3.285   5.000   4.316
H    1.124   5.000   4.543
H    1.123   5.000   6.955
O    3.661   5.000   8.489
H    3.014   5.000   9.207
H    5.417   5.000   6.948
H    5.481   5.000   4.527
H    3.292   5.000   3.224
13
Step   42: Energy =   -5.69850561 Cell = 20.0000 0.0000 0.0000 0.0000 20.0000 0.0000 0.0000 0.0000 20.0000
C    2.099   5.000   5.044
C    2.090   5.000   6.466
C    3.331   5.000   7.137
C    4.494   5.000   6.379
C    4.496   5.000   5.012
C    3.285   5.000   4.321
H    1.130   5.000   4.541
H    1.125   5.000   6.957
O    3.660   5.000   8.487
H    3.010   5.000   9.192
H    5.413   5.000   6.949
H    5.479   5.000   4.522
H    3.290   5.000   3.231
13
Step   43: Energy =  -5.669071825 Cell = 20.0000 0.0000 0.0000 0.0000 20.0000 0.0000 0.0000 0.0000 20.0000
C    2.096   5.000   5.073
C    2.096   5.000   6.491
C    3.348   5.000   7.141
C    4.508   5.000   6.380
C    4.499   5.000   5.007
C    3.281   5.000   4.327
H    1.129   5.000   4.542
H    1.109   5.000   6.965
O    3.696   5.000   8.490
H    2.957   5.000   9.126
H    5.417   5.000   6.949
H    5.482   5.000   4.511
H    3.283   5.000   3.238
13
Step   44: Energy =  -5.699593631 Cell = 20.0000 0.0000 0.0000 0.0000 20.0000 0.0000 0.0000 0.0000 20.0000
C    2.093   5.000   5.091
C    2.094   5.000   6.502
C    3.357   5.000   7.147
C    4.528   5.000   6.381
C    4.513   5.000   4.994
C    3.275   5.000   4.326
H    1.129   5.000   4.537
H    1.099   5.000   6.984
O    3.687   5.000   8.499
H    2.933   5.000   9.100
H    5.440   5.000   6.960
H    5.480   5.000   4.489
H    3.275   5.000   3.231
13
Step   45: Energy =  -5.703405993 Cell = 20.0000 0.0000 0.0000 0.0000 20.0000 0.0000 0.0000 0.0000 20.0000
C    2.092   5.000   5.099
C    2.092   5.000   6.508
C    3.360   5.000   7.149
C    4.537   5.000   6.382
C    4.519   5.000   4.988
C    3.272   5.000   4.325
H    1.128   5.000   4.534
H    1.094   5.000   6.993
O    3.682   5.000   8.504
H    2.922   5.000   9.087
H    5.450   5.000   6.965
H    5.480   5.000   4.479
H    3.271   5.000   3.227
13
Step   46: Energy =  -5.707322027 Cell = 20.0000 0.0000 0.0000 0.0000 20.0000 0.0000 0.0000 0.0000 20.0000
C    2.087   5.000   5.102
C    2.089   5.000   6.522
C    3.377   5.000   7.152
C    4.552   5.000   6.373
C    4.519   5.000   4.984
C    3.274   5.000   4.331
H    1.140   5.000   4.539
H    1.100   5.000   7.017
O    3.681   5.000   8.516
H    2.876   5.000   9.052
H    5.471   5.000   6.978
H    5.479   5.000   4.448
H    3.257   5.000   3.227
13
Step   47: Energy =  -5.712963205 Cell = 20.0000 0.0000 0.0000 0.0000 20.0000 0.0000 0.0000 0.0000 20.0000
C    2.092   5.000   5.100
C    2.095   5.000   6.520
C    3.387   5.000   7.148
C    4.563   5.000   6.377
C    4.519   5.000   4.985
C    3.274   5.000   4.340
H    1.154   5.000   4.544
H    1.110   5.000   7.027
O    3.658   5.000   8.526
H    2.849   5.000   9.043
H    5.491   5.000   6.969
H    5.467   5.000   4.421
H    3.243   5.000   3.239
13
Step   48: Energy =   -5.71441553 Cell = 20.0000 0.0000 0.0000 0.0000 20.0000 0.0000 0.0000 0.0000 20.0000
C    2.097   5.000   5.099
C    2.101   5.000   6.518
C    3.395   5.000   7.144
C    4.574   5.000   6.381
C    4.519   5.000   4.986
C    3.275   5.000   4.349
H    1.167   5.000   4.549
H    1.120   5.000   7.036
O    3.636   5.000   8.536
H    2.822   5.000   9.035
H    5.510   5.000   6.961
H    5.456   5.000   4.394
H    3.231   5.000   3.251
13
Step   49: Energy =  -5.714813151 Cell = 20.0000 0.0000 0.0000 0.0000 20.0000 0.0000 0.0000 0.0000 20.0000
C    2.105   5.000   5.111
C    2.115   5.000   6.523
C    3.404   5.000   7.144
C    4.587   5.000   6.384
C    4.528   5.000   4.986
C    3.276   5.000   4.361
H    1.169   5.000   4.554
H    1.143   5.000   7.055
O    3.623   5.000   8.539
H    2.770   5.000   8.992
H    5.525   5.000   6.955
H    5.441   5.000   4.368
H    3.214   5.000   3.269
13
Step   50: Energy =  -5.716527233 Cell = 20.0000 0.0000 0.0000 0.0000 20.0000 0.0000 0.0000 0.0000 20.0000
C    2.109   5.000   5.116
C    2.121   5.000   6.525
C    3.408   5.000   7.144
C    4.594   5.000   6.385
C    4.532   5.000   4.986
C    3.277   5.000   4.366
H    1.171   5.000   4.557
H    1.155   5.000   7.064
O    3.617   5.000   8.540
H    2.745   5.000   8.972
H    5.533   5.000   6.952
H    5.433   5.000   4.355
H    3.206   5.000   3.277
13
Step   51: Energy =  -5.719673128 Cell = 20.0000 0.0000 0.0000 0.0000 20.0000 0.0000 0.0000 0.0000 20.0000
C    2.110   5.000   5.114
C    2.131   5.000   6.518
C    3.402   5.000   7.143
C    4.599   5.000   6.389
C    4.540   5.000   4.991
C    3.286   5.000   4.365
H    1.156   5.000   4.564
H    1.182   5.000   7.075
O    3.590   5.000   8.529
H    2.734   5.000   8.972
H    5.542   5.000   6.948
H    5.429   5.000   4.353
H    3.200   5.000   3.277
13
Step   52: Energy =  -5.720856367 Cell = 20.0000 0.0000 0.0000 0.0000 20.0000 0.0000 0.0000 0.0000 20.0000
C    2.107   5.000   5.113
C    2.139   5.000   6.517
C    3.408   5.000   7.145
C    4.605   5.000   6.394
C    4.540   5.000   4.993
C    3.287   5.000   4.361
H    1.149   5.000   4.576
H    1.196   5.000   7.085
O    3.573   5.000   8.525
H    2.715   5.000   8.965
H    5.554   5.000   6.942
H    5.431   5.000   4.354
H    3.197   5.000   3.271
13
Step   53: Energy =  -5.721112773 Cell = 20.0000 0.0000 0.0000 0.0000 20.0000 0.0000 0.0000 0.0000 20.0000
C    2.105   5.000   5.112
C    2.146   5.000   6.516
C    3.414   5.000   7.146
C    4.611   5.000   6.398
C    4.540   5.000   4.996
C    3.288   5.000   4.358
H    1.142   5.000   4.586
H    1.208   5.000   7.093
O    3.558   5.000   8.521
H    2.699   5.000   8.959
H    5.564   5.000   6.937
H    5.433   5.000   4.354
H    3.194   5.000   3.265
13
Step   54: Energy =  -5.716748998 Cell = 20.0000 0.0000 0.0000 0.0000 20.0000 0.0000 0.0000 0.0000 20.0000
C    2.105   5.000   5.113
C    2.151   5.000   6.516
C    3.417   5.000   7.147
C    4.612   5.000   6.395
C    4.535   5.000   4.994
C    3.284   5.000   4.355
H    1.139   5.000   4.595
H    1.215   5.000   7.092
O    3.553   5.000   8.524
H    2.689   5.000   8.959
H    5.571   5.000   6.926
H    5.434   5.000   4.362
H    3.197   5.000   3.262
13
Step   55: Energy =  -5.713776548 Cell = 20.0000 0.0000 0.0000 0.0000 20.0000 0.0000 0.0000 0.0000 20.0000
C    2.107   5.000   5.113
C    2.164   5.000   6.517
C    3.424   5.000   7.149
C    4.615   5.000   6.390
C    4.525   5.000   4.991
C    3.276   5.000   4.349
H    1.131   5.000   4.613
H    1.229   5.000   7.089
O    3.540   5.000   8.532
H    2.666   5.000   8.959
H    5.587   5.000   6.905
H    5.437   5.000   4.379
H    3.203   5.000   3.255
13
Step   56: Energy =  -5.723774978 Cell = 20.0000 0.0000 0.0000 0.0000 20.0000 0.0000 0.0000 0.0000 20.0000
C    2.104   5.000   5.115
C    2.162   5.000   6.516
C    3.425   5.000   7.146
C    4.614   5.000   6.387
C    4.525   5.000   4.988
C    3.274   5.000   4.349
H    1.128   5.000   4.614
H    1.230   5.000   7.094
O    3.543   5.000   8.531
H    2.668   5.000   8.952
H    5.582   5.000   6.906
H    5.442   5.000   4.383
H    3.206   5.000   3.256
13
Step   57: Energy =  -5.721813371 Cell = 20.0000 0.0000 0.0000 0.0000 20.0000 0.0000 0.0000 0.0000 20.0000
C    2.100   5.000   5.117
C    2.160   5.000   6.515
C    3.427   5.000   7.143
C    4.613   5.000   6.385
C    4.525   5.000   4.985
C    3.272   5.000   4.350
H    1.125   5.000   4.615
H    1.231   5.000   7.100
O    3.546   5.000   8.531
H    2.670   5.000   8.945
H    5.576   5.000   6.908
H    5.446   5.000   4.388
H    3.210   5.000   3.257
13
Step   58: Energy =  -5.721813659 Cell = 20.0000 0.0000 0.0000 0.0000 20.0000 0.0000 0.0000 0.0000 20.0000
C    2.100   5.000   5.119
C    2.162   5.000   6.519
C    3.428   5.000   7.146
C    4.614   5.000   6.385
C    4.526   5.000   4.986
C    3.272   5.000   4.351
H    1.123   5.000   4.619
H    1.234   5.000   7.104
O    3.543   5.000   8.533
H    2.663   5.000   8.933
H    5.581   5.000   6.901
H    5.446   5.000   4.388
H    3.211   5.000   3.257
13
Step   59: Energy =  -5.720868844 Cell = 20.0000 0.0000 0.0000 0.0000 20.0000 0.0000 0.0000 0.0000 20.0000
C    2.099   5.000   5.120
C    2.165   5.000   6.524
C    3.429   5.000   7.150
C    4.615   5.000   6.384
C    4.527   5.000   4.987
C    3.272   5.000   4.353
H    1.120   5.000   4.624
H    1.238   5.000   7.110
O    3.540   5.000   8.536
H    2.653   5.000   8.917
H    5.587   5.000   6.892
H    5.445   5.000   4.387
H    3.211   5.000   3.258
13
Step   60: Energy =  -5.718293841 Cell = 20.0000 0.0000 0.0000 0.0000 20.0000 0.0000 0.0000 0.0000 20.0000
C    2.101   5.000   5.121
C    2.167   5.000   6.523
C    3.432   5.000   7.150
C    4.616   5.000   6.385
C    4.524   5.000   4.988
C    3.273   5.000   4.352
H    1.121   5.000   4.629
H    1.242   5.000   7.114
O    3.536   5.000   8.538
H    2.646   5.000   8.911
H    5.591   5.000   6.886
H    5.442   5.000   4.386
H    3.211   5.000   3.257
13
Step   61: Energy =  -5.718507912 Cell = 20.0000 0.0000 0.0000 0.0000 20.0000 0.0000 0.0000 0.0000 20.0000
C    2.102   5.000   5.121
C    2.167   5.000   6.522
C    3.431   5.000   7.150
C    4.615   5.000   6.386
C    4.523   5.000   4.989
C    3.272   5.000   4.351
H    1.121   5.000   4.630
H    1.243   5.000   7.115
O    3.536   5.000   8.538
H    2.646   5.000   8.910
H    5.591   5.000   6.883
H    5.442   5.000   4.388
H    3.212   5.000   3.256
13
Step   62: Energy =  -5.718831279 Cell = 20.0000 0.0000 0.0000 0.0000 20.0000 0.0000 0.0000 0.0000 20.0000
C    2.102   5.000   5.120
C    2.167   5.000   6.522
C    3.431   5.000   7.150
C    4.615   5.000   6.386
C    4.523   5.000   4.989
C    3.273   5.000   4.351
H    1.121   5.000   4.630
H    1.243   5.000   7.115
O    3.537   5.000   8.538
H    2.646   5.000   8.910
H    5.591   5.000   6.883
H    5.442   5.000   4.389
H    3.212   5.000   3.256
13
Step   63: Energy =  -5.719115709 Cell = 20.0000 0.0000 0.0000 0.0000 20.0000 0.0000 0.0000 0.0000 20.0000
C    2.102   5.000   5.120
C    2.167   5.000   6.522
C    3.431   5.000   7.150
C    4.615   5.000   6.386
C    4.523   5.000   4.989
C    3.273   5.000   4.351
H    1.120   5.000   4.630
H    1.243   5.000   7.115
O    3.537   5.000   8.538
H    2.647   5.000   8.910
H    5.591   5.000   6.883
H    5.442   5.000   4.389
H    3.212   5.000   3.256
13
Step   64: Energy =  -5.719068747 Cell = 20.0000 0.0000 0.0000 0.0000 20.0000 0.0000 0.0000 0.0000 20.0000
C    2.102   5.000   5.120
C    2.166   5.000   6.522
C    3.431   5.000   7.150
C    4.615   5.000   6.386
C    4.523   5.000   4.989
C    3.273   5.000   4.351
H    1.120   5.000   4.629
H    1.243   5.000   7.115
O    3.537   5.000   8.538
H    2.647   5.000   8.911
H    5.591   5.000   6.883
H    5.442   5.000   4.389
H    3.212   5.000   3.256
13