8
Step    0: Energy =             0 Cell = 8.2500 0.0000 0.0000 0.0000 8.2500 0.0000 0.0000 0.0000 8.2500
Mg   0.000   0.000   0.000
Mg   2.117   2.117   0.000
Mg   2.117   0.000   2.117
Mg   0.000   2.117   2.117
O    2.117   0.000   0.000
O    0.000   2.117   0.000
O    0.000   0.000   2.117
O    2.117   2.117   2.117
8
Step    1: Energy =  -4.312795496 Cell = 8.2500 0.0000 0.0000 0.0000 8.2500 0.0000 0.0000 0.0000 8.2500
Mg   4.313   4.313   4.313
Mg   2.170   2.170   4.313
Mg   2.170   4.313   2.170
Mg   4.313   2.170   2.170
O    2.156   4.326   4.326
O    4.326   2.156   4.326
O    4.326   4.326   2.156
O    2.156   2.156   2.156
8
Step    2: Energy =  -4.329470307 Cell = 8.2500 0.0000 0.0000 0.0000 8.2500 0.0000 0.0000 0.0000 8.2500
Mg   4.331   4.331   4.331
Mg   2.152   2.152   4.331
Mg   2.152   4.331   2.152
Mg   4.331   2.152   2.152
O    2.143   4.340   4.340
O    4.340   2.143   4.340
O    4.340   4.340   2.143
O    2.143   2.143   2.143
8
Step    3: Energy =  -4.330153994 Cell = 8.2500 0.0000 0.0000 0.0000 8.2500 0.0000 0.0000 0.0000 8.2500
Mg   4.330   4.330   4.330
Mg   2.152   2.152   4.330
Mg   2.152   4.330   2.152
Mg   4.330   2.152   2.152
O    2.147   4.335   4.335
O    4.335   2.147   4.335
O    4.335   4.335   2.147
O    2.147   2.147   2.147
8
Step    4: Energy =  -4.330260145 Cell = 8.2500 0.0000 0.0000 0.0000 8.2500 0.0000 0.0000 0.0000 8.2500
Mg   4.332   4.332   4.332
Mg   2.151   2.151   4.332
Mg   2.151   4.332   2.151
Mg   4.332   2.151   2.151
O    2.149   4.333   4.333
O    4.333   2.149   4.333
O    4.333   4.333   2.149
O    2.149   2.149   2.149
8
Step    5: Energy =  -4.330274829 Cell = 8.2500 0.0000 0.0000 0.0000 8.2500 0.0000 0.0000 0.0000 8.2500
Mg   4.333   4.333   4.333
Mg   2.150   2.150   4.333
Mg   2.150   4.333   2.150
Mg   4.333   2.150   2.150
O    2.150   4.333   4.333
O    4.333   2.150   4.333
O    4.333   4.333   2.150
O    2.150   2.150   2.150
8
Step    6: Energy =  -4.330275672 Cell = 8.2500 0.0000 0.0000 0.0000 8.2500 0.0000 0.0000 0.0000 8.2500
Mg   4.333   4.333   4.333
Mg   2.150   2.150   4.333
Mg   2.150   4.333   2.150
Mg   4.333   2.150   2.150
O    2.150   4.332   4.333
O    4.333   2.150   4.333
O    4.333   4.333   2.150
O    2.150   2.150   2.150
8
Step    0: Energy =             0 Cell = 8.2500 0.0000 0.0000 0.0000 8.2500 0.0000 0.0000 0.0000 8.2500
Mg   4.333   4.333   4.333
Mg   2.150   2.150   4.333
Mg   2.150   4.333   2.150
Mg   4.333   2.150   2.150
O    2.150   4.332   4.333
O    4.333   2.150   4.333
O    4.333   4.333   2.150
O    2.150   2.150   2.150
8
Step    0: Energy =             0 Cell = 8.2500 0.0000 0.0000 0.0000 8.2500 0.0000 0.0000 0.0000 8.2500
Mg   4.333   4.333   4.333
Mg   2.150   2.150   4.333
Mg   2.150   4.333   2.150
Mg   4.333   2.150   2.150
O    2.150   4.332   4.333
O    4.333   2.150   4.333
O    4.333   4.333   2.150
O    2.150   2.150   2.150
8
Step    0: Energy =             0 Cell = 8.2500 0.0000 0.0000 0.0000 8.2500 0.0000 0.0000 0.0000 8.2500
Mg   4.333   4.333   4.333
Mg   2.150   2.150   4.333
Mg   2.150   4.333   2.150
Mg   4.333   2.150   2.150
O    2.150   4.332   4.333
O    4.333   2.150   4.333
O    4.333   4.333   2.150
O    2.150   2.150   2.150
